128
energy=-397.69043 config_type=FromPyNEP pbc="T T T" Lattice="13.373357772827148 0.0 0.0 0.0 23.912086486816406 0.0 0.0 0.0 12.548447608947754" Properties=species:S:1:pos:R:3:force:R:3
K   1.87414110e-01  9.19480038e+00  1.24512684e+00 -1.31447047e-01  1.12102874e-01 -4.05662283e-02
K   7.01921988e+00  8.91271877e+00  1.28173256e+00 -1.12889647e-01  4.30218488e-01 -1.26775086e-01
K   1.32882166e+01  2.12148914e+01  1.20829916e+00 -7.16968020e-03 -1.68096870e-01  5.89315705e-02
K   6.81597471e+00  2.09795151e+01  1.18136585e+00 -1.41306341e-01  1.73519224e-01 -3.08763802e-01
K   1.32592020e+01  9.19849682e+00  7.29632616e+00  2.19094411e-01 -1.16083203e-02  2.26844605e-02
K   6.62252140e+00  8.94750214e+00  7.30470133e+00 -2.27846997e-03  2.25532934e-01 -1.69132814e-01
K   1.33658657e+01  2.13584862e+01  7.31467152e+00  1.14039823e-01 -5.21986246e-01 -3.38127941e-01
K   6.47862339e+00  2.11348972e+01  7.14422894e+00  5.89576513e-02 -5.33055812e-02  2.90585309e-02
K   1.32243719e+01  2.88413906e+00  1.03613889e+00  9.57013667e-02  1.90474391e-01 -1.99334025e-01
K   6.55716085e+00  2.90242982e+00  1.19531345e+00  1.09593803e-02 -1.33793473e-01 -1.91946387e-01
K   3.17997456e-01  1.48268127e+01  8.43385696e-01 -1.98499143e-01 -3.39015201e-02 -7.22720996e-02
K   6.73141623e+00  1.48586502e+01  8.16010237e-01  9.66708884e-02  5.68913016e-03  1.08665660e-01
K   3.62625308e-02  2.76339507e+00  7.38893414e+00 -5.25324792e-02  2.89300889e-01 -1.63710006e-02
K   6.41747570e+00  2.88369489e+00  7.31580734e+00  1.58690795e-01 -1.99974015e-01  1.54125333e-01
K   4.60558385e-02  1.47664185e+01  7.15920591e+00  6.23550788e-02  1.03200540e-01  2.19722643e-01
K   6.40669966e+00  1.46323452e+01  7.43903255e+00  1.01404823e-01 -5.74581977e-03  5.54278716e-02
K   3.19169211e+00  8.82026196e+00  5.44065571e+00  4.35647406e-02 -2.70164877e-01 -1.66295379e-01
K   1.03357210e+01  8.85977364e+00  5.20923328e+00 -3.56904417e-01  2.21514553e-01 -1.34847015e-01
K   3.14118123e+00  2.08293266e+01  4.81409359e+00  2.11971998e-02 -1.42702267e-01  2.87639409e-01
K   9.93070507e+00  2.06484699e+01  5.40419292e+00  1.40740186e-01 -9.76672955e-03 -1.07111551e-01
K   3.47118235e+00  8.58286190e+00  1.17175255e+01  2.80227698e-02  2.67995209e-01 -3.26579213e-01
K   1.03936872e+01  9.06223106e+00  1.19155369e+01 -1.16204493e-01 -8.98866281e-02 -2.82642961e-01
K   3.01852155e+00  2.06444416e+01  1.15247583e+01  2.72773117e-01  2.01234564e-01  2.09774300e-02
K   1.04015579e+01  2.06086140e+01  1.16841955e+01 -3.39022040e-01  8.88154730e-02  2.42143497e-02
K   3.44054437e+00  3.20912528e+00  4.93316269e+00 -1.64158866e-01  9.35468525e-02  1.13991961e-01
K   9.80176163e+00  3.17563462e+00  5.39002705e+00  3.30269367e-01 -3.86445582e-01  1.36702284e-01
K   3.30317855e+00  1.48500996e+01  5.04996061e+00  1.06540900e-02  2.21983835e-01  1.33872092e-01
K   9.87665844e+00  1.49816246e+01  5.44749212e+00 -1.31710405e-02  4.92797554e-01 -7.90960491e-02
K   3.49507046e+00  3.32813597e+00  1.14188309e+01 -1.04510993e-01 -1.37155354e-01  9.20204967e-02
K   1.00074120e+01  3.13088202e+00  1.15071096e+01  4.23801690e-02  9.04174224e-02 -9.34690982e-03
K   3.59299469e+00  1.49877520e+01  1.15823002e+01 -7.70687163e-02  2.23729193e-01 -1.68172374e-01
K   9.85067749e+00  1.49442282e+01  1.11026182e+01  1.16838597e-01  5.85455477e-01  5.16173542e-01
K   1.32574682e+01  3.49141091e-01  3.55166578e+00  1.66384503e-02  1.55882002e-03  9.86748934e-02
K   6.83542347e+00  2.37709026e+01  3.55157161e+00 -1.94985583e-01  8.83832574e-02  9.33682919e-02
K   1.31700640e+01  1.26230087e+01  3.52044654e+00  1.14309482e-01 -1.41805127e-01  1.42235816e-01
K   6.88395929e+00  1.23029585e+01  3.74902010e+00 -2.30242237e-01 -8.05801600e-02 -1.28969774e-01
K   1.32868462e+01  2.36962204e+01  9.54556847e+00  5.39511405e-02  2.23654002e-01  4.99222368e-01
K   6.57897663e+00  2.36899700e+01  9.90256786e+00  8.10878724e-02 -1.61269605e-02  4.99199182e-02
K   3.53011042e-01  1.19156513e+01  9.82407570e+00 -1.63009778e-01 -9.23817977e-03  4.17505689e-02
K   7.10773230e+00  1.12695303e+01  1.00898352e+01 -1.82534903e-01 -8.76672007e-03 -1.28987730e-01
K   3.38358927e+00  6.51207733e+00  2.61088777e+00  1.57488167e-01 -1.17773540e-01 -4.30790009e-03
K   1.02482634e+01  5.64852047e+00  2.81122351e+00 -1.24620728e-01  1.00131847e-01 -1.64393336e-01
K   3.20828199e+00  1.79446716e+01  2.50745535e+00  2.35856205e-01 -8.53254795e-02  1.25539452e-01
K   9.90177059e+00  1.76921711e+01  3.05841613e+00  3.24835479e-01  5.08971978e-03 -3.09884906e-01
K   3.09048462e+00  5.93140936e+00  8.88676834e+00 -2.19357992e-03  7.03867823e-02 -8.26982334e-02
K   1.00023222e+01  6.13247061e+00  8.98841095e+00 -1.41297132e-01  6.66898116e-02  2.35784680e-01
K   3.15216756e+00  1.80127468e+01  8.88922310e+00  2.39269242e-01 -9.63334665e-02  8.23473781e-02
K   9.59361267e+00  1.81899052e+01  8.95121098e+00  4.06828701e-01  5.25085218e-02 -5.51647209e-02
Li  1.22333191e-01  5.96272945e+00  2.05456519e+00 -6.05003983e-02 -2.02657551e-01 -7.41484165e-01
Li  7.02186871e+00  5.90473270e+00  2.00082541e+00 -2.19267607e-01 -1.42341897e-01 -1.08641431e-01
Li  7.58829713e-02  1.79433441e+01  1.95883977e+00 -1.52589425e-01  1.50649901e-02 -1.31936371e-01
Li  6.85030699e+00  1.79751492e+01  1.81502497e+00  3.73229496e-02 -1.31381154e-01  2.83958048e-01
Li  1.29630957e+01  6.10279512e+00  8.11480141e+00  5.41921198e-01 -1.29079401e-01  4.48774457e-01
Li  6.63978529e+00  5.96964836e+00  8.24765396e+00 -1.09213199e-02  1.82269793e-02 -2.63479382e-01
Li  1.72627307e-02  1.82482128e+01  8.27769089e+00 -3.15041840e-01 -3.20148200e-01 -4.80996042e-01
Li  6.59088755e+00  1.78873024e+01  8.05301857e+00 -3.48847508e-01  1.14547417e-01 -1.34442925e-01
Li  3.34128952e+00  1.71562005e-02  4.32904053e+00  2.04772323e-01  1.88235808e-02 -5.16164899e-01
Li  9.98958015e+00  2.37452202e+01  4.30941820e+00  1.77166834e-01  4.82042760e-01  8.04238319e-01
Li  3.45140076e+00  1.17099495e+01  4.12183475e+00 -4.35354412e-02 -1.23704202e-01  8.15838575e-01
Li  9.90041637e+00  1.22697315e+01  4.47205114e+00  1.77513450e-01 -5.47389448e-01 -2.95821503e-02
Li  3.02548456e+00  4.77600917e-02  1.05168324e+01 -7.62726590e-02  2.11017296e-01  1.87998846e-01
Li  1.01034489e+01  2.37052746e+01  1.08727608e+01 -1.42429397e-01 -9.46077332e-02 -4.62778777e-01
Li  3.71160746e+00  1.19627676e+01  1.06138773e+01 -1.00426398e-01 -2.71083146e-01 -1.81028411e-01
Li  1.01960382e+01  1.21796389e+01  1.04763508e+01  1.67768255e-01 -1.41655862e-01  8.14442575e-01
Ge  1.56151688e+00  1.11504927e-01  4.44902062e-01  1.00843346e+00  2.29388416e-01  1.37402001e-03
Ge  8.66824055e+00  2.38060360e+01  4.51369911e-01 -4.97240663e-01 -1.81718871e-01 -2.05287963e-01
Ge  2.16067672e+00  1.19692440e+01  2.35026151e-01  3.99000019e-01  6.05082586e-02  1.76523328e-01
Ge  8.67027760e+00  1.19798431e+01  3.87500435e-01  3.62699509e-01  4.38374668e-01  9.05410200e-02
Ge  1.95397842e+00  1.36479184e-01  6.36857319e+00  2.87118107e-01 -2.84977287e-01  8.91248345e-01
Ge  8.96327782e+00  2.38941708e+01  6.75366497e+00 -8.82131696e-01 -3.61225933e-01 -1.65174067e-01
Ge  2.03550410e+00  1.18752136e+01  6.45121002e+00 -9.37581658e-01 -2.13164777e-01 -1.83868751e-01
Ge  8.68196106e+00  1.17507458e+01  6.87682772e+00  1.54395595e-01  5.05439818e-01 -4.06622618e-01
Ge  4.33814478e+00  6.94569573e-02  1.31240323e-01  4.20528613e-02 -2.74270005e-03  1.28592998e-02
Ge  1.12682734e+01  1.35781914e-01  5.15877187e-01  2.43955314e-01 -1.22190289e-01  2.21751228e-01
Ge  4.99297810e+00  1.19127703e+01  4.11615431e-01 -7.06664145e-01 -2.22108766e-01  3.38062406e-01
Ge  1.13826504e+01  1.23159437e+01  5.74694395e-01  2.57321239e-01 -1.56233497e-02 -8.41309488e-01
Ge  4.59773064e+00  8.73006042e-03  6.75904655e+00 -2.27867905e-02 -1.59508854e-01 -2.19164968e-01
Ge  1.14890394e+01  1.10722773e-01  6.83370066e+00  6.24235021e-03 -1.49479493e-01 -1.63910687e-01
Ge  4.55147314e+00  1.19124384e+01  6.62670803e+00  1.42914474e+00 -2.00427577e-01 -8.78071487e-01
Ge  1.14341621e+01  1.20905924e+01  6.67058754e+00 -1.75163239e-01 -1.72380015e-01 -4.41482782e-01
Ge  5.43174696e+00  5.91395140e+00  5.78715754e+00 -2.34691739e-01 -1.49339676e-01  4.80923563e-01
Ge  1.18444452e+01  5.96984339e+00  5.85994053e+00  1.59556955e-01 -1.01542301e-01 -2.77650565e-01
Ge  5.22047567e+00  1.76954803e+01  5.59536266e+00 -1.77374020e-01 -7.45151788e-02  6.37032390e-01
Ge  1.20209370e+01  1.77064400e+01  5.89139986e+00  1.22503951e-01  2.28965774e-01  1.92654595e-01
Ge  5.57692814e+00  6.08940744e+00  1.20998812e+01 -6.02174997e-01 -5.05418360e-01  3.07562739e-01
Ge  1.21500349e+01  6.27427673e+00  1.21962099e+01 -1.77384123e-01 -5.53386331e-01  1.10127673e-01
Ge  5.47326851e+00  1.79981384e+01  1.23074780e+01 -3.92839372e-01 -3.48688155e-01 -7.18726158e-01
Ge  1.20021019e+01  1.76310120e+01  1.23867979e+01  5.91093540e-01  2.45731503e-01 -1.17593694e+00
Ge  1.13403940e+00  5.89884996e+00  5.89892244e+00  1.92179099e-01 -2.31028125e-01  5.64510003e-02
Ge  8.13166904e+00  6.05448437e+00  6.01830006e+00 -4.00344640e-01  1.49512634e-01 -3.46235871e-01
Ge  1.37337399e+00  1.78112202e+01  6.00777340e+00 -4.52285081e-01 -4.07374911e-02 -5.90282977e-01
Ge  7.91890097e+00  1.79519901e+01  5.88425016e+00  5.61135784e-02  2.92877294e-02  2.67693400e-01
Ge  1.39075994e+00  5.97195196e+00  1.22306557e+01  2.09422722e-01 -3.23563993e-01  1.82732522e-01
Ge  8.13202667e+00  6.10728264e+00  1.22347813e+01  7.24910617e-01 -1.34630620e-01 -7.50615373e-02
Ge  1.33526051e+00  1.77830811e+01  1.21677885e+01 -9.56317931e-02  1.65546805e-01 -3.03591508e-02
Ge  8.07002163e+00  1.80402851e+01  1.19864006e+01  1.77129164e-01  4.75950778e-01  6.65416988e-03
Ge  1.31706676e+01  4.43437576e+00  4.20683050e+00  1.28754154e-01  5.66938281e-01  3.62977833e-01
Ge  6.98330879e+00  4.43832827e+00  4.34867668e+00 -2.50649363e-01  7.76941776e-01 -2.79203951e-01
Ge  5.85927023e-03  1.64807625e+01  4.09895134e+00  2.99290478e-01  8.02991614e-02  4.45874423e-01
Ge  6.91080523e+00  1.65652122e+01  4.05850697e+00 -2.30522335e-01 -2.91519910e-01 -2.59375989e-01
Ge  1.33721161e+01  4.69645739e+00  1.04392958e+01 -1.31082207e-01  2.94256538e-01  3.01076233e-01
Ge  7.02133560e+00  4.69491673e+00  1.03955193e+01 -1.97955653e-01  5.63951991e-02  4.54962701e-01
Ge  5.77456318e-02  1.66232376e+01  1.02991419e+01 -3.84678781e-01  1.54658407e-01  6.15833879e-01
Ge  6.72785234e+00  1.67578030e+01  1.02956629e+01 -5.55573523e-01 -3.84410888e-01  4.65420485e-01
Ge  1.33042850e+01  7.21110153e+00  4.11281061e+00 -1.74292907e-01 -5.11322394e-02  4.47442412e-01
Ge  6.71791315e+00  7.26478863e+00  4.14269590e+00  4.29594010e-01 -4.05749500e-01  2.42940173e-01
Ge  1.33538160e+01  1.91385555e+01  4.22723055e+00  6.84020594e-02  5.74066006e-02  1.81677014e-01
Ge  6.56219721e+00  1.92256107e+01  4.14817190e+00  1.93429336e-01  2.93853283e-01 -3.75254333e-01
Ge  2.81156808e-01  7.38231516e+00  1.05005827e+01 -1.88664928e-01  3.83481473e-01 -5.83679736e-01
Ge  6.88931561e+00  7.38741159e+00  1.04274836e+01  1.83007970e-01  3.38388801e-01 -1.53881043e-01
Ge  1.33107309e+01  1.93062801e+01  1.05701656e+01 -1.29567146e-01 -4.79506582e-01  6.75081313e-01
Ge  6.35344982e+00  1.93660851e+01  1.03594360e+01  3.64968359e-01  8.11620578e-02  1.92566469e-01
Ge  3.37074065e+00  1.47197950e+00  2.01253939e+00 -4.30218190e-01 -7.39661276e-01 -1.85206011e-01
Ge  9.72437477e+00  1.48342764e+00  2.07523918e+00  3.08860213e-01 -3.95965457e-01  4.73820955e-01
Ge  3.45035481e+00  1.31388645e+01  2.16625500e+00  4.75400612e-02 -1.05815910e-01 -8.79278600e-01
Ge  9.88745785e+00  1.35898476e+01  2.15421295e+00 -3.22038114e-01 -1.37773097e-01 -1.44726932e-01
Ge  3.14992309e+00  1.52963758e+00  8.19888687e+00 -9.38598588e-02 -6.15775466e-01  1.07525803e-01
Ge  1.00000181e+01  1.14907837e+00  8.69954491e+00  1.60246626e-01 -2.92037815e-01 -2.38525957e-01
Ge  3.20337033e+00  1.30167580e+01  8.34251022e+00 -1.46931574e-01  1.11487257e+00  5.65896928e-01
Ge  1.00916080e+01  1.35142813e+01  8.26252651e+00 -2.18613759e-01 -7.61178255e-01  1.15217030e-01
Ge  3.31593537e+00  1.04596567e+01  1.91288280e+00  4.00429696e-01  2.73908705e-01 -1.12075172e-01
Ge  1.01097879e+01  1.09052391e+01  2.16753936e+00 -1.46968424e-01 -3.35692465e-01  6.42212212e-01
Ge  3.19060135e+00  2.25776405e+01  1.87306643e+00  7.71116689e-02  4.27293599e-01  3.71688992e-01
Ge  1.00392780e+01  2.25362320e+01  2.22948122e+00 -3.64252590e-02  3.52108926e-01 -5.11496663e-01
Ge  3.29534483e+00  1.04507608e+01  8.23376942e+00 -1.58088923e-01 -5.29630840e-01  4.91543680e-01
Ge  1.03188477e+01  1.07373819e+01  8.46739197e+00  1.21552549e-01 -8.02902207e-02  1.46417156e-01
Ge  3.06818914e+00  2.25812397e+01  8.39261055e+00  9.16113984e-03  7.59232461e-01 -8.48885417e-01
Ge  1.02256107e+01  2.22382317e+01  8.38332176e+00 -2.00361073e-01  9.53511119e-01 -1.96114499e-02
128
energy=-397.80737 config_type=FromPyNEP pbc="T T T" Lattice="13.373357772827148 0.0 0.0 0.0 23.912086486816406 0.0 0.0 0.0 12.548447608947754" Properties=species:S:1:pos:R:3:force:R:3
K   1.45936504e-01  9.34177780e+00  1.03926396e+00 -2.10196659e-01 -3.40198018e-02  2.95066476e-01
K   6.62954807e+00  8.93126965e+00  9.80001867e-01 -1.11022227e-01  6.44373655e-01 -2.15108335e-01
K   2.40880534e-01  2.08316860e+01  6.44105673e-01 -2.25282326e-01  3.48946810e-01  2.79036820e-01
K   6.61449051e+00  2.09153671e+01  1.13501775e+00  5.76927289e-02  2.00346902e-01 -2.25357145e-01
K   1.32325859e+01  9.20836830e+00  7.68582535e+00  6.88818097e-02  9.20110866e-02 -1.87847495e-01
K   6.83562613e+00  9.05181217e+00  7.37807989e+00 -1.90245032e-01 -1.76713079e-01 -3.43395397e-02
K   1.30611048e+01  2.11034908e+01  7.29268694e+00  2.62341172e-01 -8.27488974e-02  1.33514136e-01
K   6.70846128e+00  2.12024708e+01  7.19590044e+00 -3.62199396e-02 -1.66622907e-01  1.88036114e-01
K   1.32551584e+01  2.88977194e+00  1.17680717e+00  1.32609293e-01 -9.17144958e-03  1.90866739e-01
K   6.99953413e+00  2.84449911e+00  9.79426503e-01 -1.63233623e-01 -4.57357392e-02  6.35833666e-02
K   2.56137520e-01  1.45235252e+01  1.22327912e+00 -1.96624994e-01  4.71999109e-01 -1.55278012e-01
K   6.93348980e+00  1.46018658e+01  1.09510720e+00 -3.96904290e-01  2.77719527e-01 -5.88336214e-02
K   2.01071650e-01  2.86804104e+00  7.55651283e+00 -1.94564804e-01  2.62281507e-01 -1.49809852e-01
K   6.49650860e+00  2.92219472e+00  7.20165205e+00  1.66852385e-01 -9.71814990e-02 -1.90014988e-01
K   3.16415668e-01  1.47143793e+01  7.22683954e+00 -9.91160274e-02 -5.15147410e-02  9.29259807e-02
K   6.57383728e+00  1.47039709e+01  7.08160925e+00 -1.17757499e-01  5.81444008e-03  2.07244024e-01
K   3.38641429e+00  9.08154678e+00  5.40681362e+00 -6.50668815e-02 -7.48320937e-01 -3.69068205e-01
K   1.00640497e+01  8.89557552e+00  5.16628599e+00  1.59808055e-01 -1.98057175e-01  2.45089699e-02
K   3.35371447e+00  2.07740517e+01  5.33339739e+00 -1.00992002e-01 -2.27826819e-01 -9.18819383e-02
K   1.00849028e+01  2.05690155e+01  5.08418608e+00 -2.02389613e-01  1.77925304e-01 -1.29370004e-04
K   3.09571862e+00  8.82765484e+00  1.13098364e+01  1.83913335e-01  4.50822115e-02  2.10964575e-01
K   9.95843506e+00  8.60822392e+00  1.17205219e+01  1.94797337e-01  5.53169668e-01  1.18064702e-01
K   3.30255961e+00  2.09889851e+01  1.13819475e+01  1.48910135e-01 -3.51221234e-01 -7.71797970e-02
K   9.74984550e+00  2.08221264e+01  1.14092627e+01  1.21120296e-01 -2.23587006e-01  1.20499499e-01
K   3.15275335e+00  3.18838453e+00  5.21425581e+00  2.08361179e-01 -1.61604032e-01 -1.02183400e-02
K   1.02110834e+01  3.19705701e+00  5.11488962e+00 -4.66608517e-02  1.09049141e-01  2.82113403e-01
K   3.22568107e+00  1.52000780e+01  4.86926985e+00  1.58172175e-01 -7.56465718e-02  1.42987087e-01
K   9.85701370e+00  1.48743839e+01  5.51366425e+00  1.03302337e-01  5.12288213e-01 -9.81909707e-02
K   3.13931990e+00  3.21958590e+00  1.16740179e+01  2.03741148e-01 -3.77240404e-02  4.79585119e-02
K   1.03969584e+01  3.28476357e+00  1.12127810e+01 -3.17215234e-01 -2.09489867e-01  2.07028866e-01
K   3.53050137e+00  1.52337780e+01  1.14077263e+01 -2.98835516e-01 -5.74468076e-01 -1.00576198e-02
K   1.01128092e+01  1.52054367e+01  1.12797384e+01  6.71808003e-03 -1.70403406e-01  2.22101480e-01
K   1.33598289e+01  2.36850605e+01  3.59865332e+00  2.66493000e-02 -3.26700993e-02 -1.35346547e-01
K   6.61607885e+00  2.36980343e+01  3.70850253e+00  1.50523856e-01  1.14426501e-01 -2.05990836e-01
K   1.31983395e+01  1.24420481e+01  4.07793474e+00  1.23269605e-02 -2.47663304e-01 -2.36182407e-01
K   6.77117825e+00  1.13639784e+01  3.75321960e+00 -7.27691427e-02  7.90726915e-02 -2.30988294e-01
K   1.32292356e+01  3.44938546e-01  1.01240797e+01  1.85517386e-01 -1.94391757e-01 -2.50915468e-01
K   6.71166563e+00  6.14220440e-01  1.00226498e+01  9.03807431e-02 -1.03605799e-01 -3.75457704e-02
K   3.38382870e-01  1.22253618e+01  1.00316133e+01 -2.96982646e-01  7.23670721e-02 -2.80931890e-01
K   6.97305202e+00  1.18560162e+01  9.95449924e+00 -3.15907985e-01  4.61678393e-02 -4.86646406e-02
K   3.45573354e+00  6.15021467e+00  3.02562666e+00 -2.29632914e-01  9.63214487e-02 -2.60237217e-01
K   9.62038612e+00  5.86975718e+00  2.62850881e+00  4.02767092e-01  4.45774198e-02  3.45451497e-02
K   3.23717093e+00  1.79757385e+01  2.43001223e+00 -1.42997921e-01  5.25437593e-02  1.50277346e-01
K   9.75323105e+00  1.77094517e+01  2.62045717e+00 -4.77002710e-02 -7.72910714e-02  5.91414198e-02
K   3.39951944e+00  5.99058580e+00  9.02705002e+00  1.08199537e-01 -6.68078987e-03 -7.14024976e-02
K   1.00582876e+01  6.18054867e+00  9.09924603e+00  2.22888999e-02  1.29438201e-02 -2.44102687e-01
K   3.13768077e+00  1.79217625e+01  9.05012894e+00  4.07951117e-01 -9.62239970e-03 -2.18261123e-01
K   9.88028240e+00  1.79042339e+01  8.71187496e+00  2.82338053e-01  5.60689010e-02  1.36871576e-01
Li  1.67420995e-03  6.18423414e+00  2.22745657e+00  1.99106596e-02  1.17108403e-02 -2.38857657e-01
Li  6.61497927e+00  6.22545958e+00  1.73322129e+00 -8.36146325e-02 -4.35858339e-01  2.48124301e-02
Li  1.28737049e+01  1.77988262e+01  1.68274927e+00  4.14192140e-01 -7.36352280e-02  4.69827920e-01
Li  6.39379311e+00  1.79389801e+01  1.82743263e+00  1.85960770e-01 -2.52703726e-01  1.18455797e-01
Li  1.33600521e+01  6.25524044e+00  8.32671070e+00 -1.68868035e-01 -1.46196276e-01  4.12872940e-01
Li  6.82438803e+00  5.81436586e+00  7.98625946e+00 -1.89890608e-01  1.41227007e-01  4.33792740e-01
Li  2.73006391e-02  1.77144165e+01  7.84851122e+00 -1.74724713e-01  2.05556124e-01  9.79275048e-01
Li  6.89451408e+00  1.79549694e+01  8.16971684e+00 -5.88391364e-01 -1.61548123e-01 -2.24911839e-01
Li  3.31210279e+00  2.36988983e+01  4.35538101e+00 -2.89841909e-02  2.99845427e-01 -7.04460293e-02
Li  1.01485929e+01  1.41471803e-01  4.48185444e+00 -1.43182725e-01 -3.47951561e-01  7.57363364e-02
Li  3.15192080e+00  1.19729128e+01  4.30338001e+00  2.94984847e-01  6.56244978e-02 -2.16283575e-01
Li  9.98548031e+00  1.21596937e+01  4.51862288e+00 -3.07781305e-02 -3.78569335e-01 -5.99684715e-02
Li  3.56097627e+00  2.38799667e+01  1.04730988e+01 -3.16106141e-01 -2.40046401e-02  4.25431162e-01
Li  9.92231655e+00  2.38077755e+01  1.06880550e+01  5.92741407e-02  1.41567335e-01  6.19867295e-02
Li  3.57527852e+00  1.18706789e+01  1.06955776e+01  1.86637994e-02  1.51749223e-01 -7.56046116e-01
Li  1.00753717e+01  1.18182325e+01  1.07528391e+01  1.62518963e-01  1.49576995e-03 -9.47538912e-02
Ge  1.87945795e+00  1.38514593e-01  4.09706563e-01  6.92333281e-01 -3.22484225e-01  8.62770677e-02
Ge  8.82822418e+00  2.38999348e+01  5.09563982e-01 -1.88180387e-01 -9.88661721e-02  1.34828165e-01
Ge  2.00671339e+00  1.21313524e+01  1.40921697e-01  5.10845542e-01  2.65303373e-01  2.98803449e-01
Ge  8.60485458e+00  1.18448372e+01  4.47638631e-01  9.93325889e-01 -3.36332232e-01  5.79774320e-01
Ge  1.89127791e+00  1.37904823e-01  6.67348576e+00  6.24383867e-01 -1.83900073e-01 -5.46413697e-02
Ge  8.63206482e+00  4.48284708e-02  6.74583387e+00 -1.23568580e-01  3.31077069e-01 -7.01728284e-01
Ge  2.10036182e+00  1.16798229e+01  6.65430117e+00  2.49419868e-01  7.58467555e-01  3.45537543e-01
Ge  8.55983353e+00  1.17239304e+01  6.69998789e+00  3.53775024e-01  5.34956455e-01 -2.56543875e-01
Ge  4.67486715e+00  2.38203735e+01  2.52098948e-01 -1.71738163e-01  5.09870350e-01  2.79742748e-01
Ge  1.14747944e+01  2.38626556e+01  2.92738855e-01 -2.60258049e-01 -8.96473974e-03  6.65011942e-01
Ge  4.68639660e+00  1.18552189e+01  3.25975925e-01  2.84926414e-01 -4.56526488e-01  1.19217582e-01
Ge  1.14976091e+01  1.20058832e+01  5.03086090e-01 -1.00288880e+00  3.81298095e-01  3.26248229e-01
Ge  4.79189205e+00  4.36933599e-02  6.53366184e+00 -6.13417268e-01 -1.54742999e-02  6.61016181e-02
Ge  1.13822985e+01  7.89986029e-02  6.83136463e+00 -1.28531516e-01  1.59386560e-01 -1.17286168e-01
Ge  4.86777925e+00  1.17440376e+01  6.56418133e+00 -6.92637324e-01  3.43487978e-01  3.37888747e-01
Ge  1.13519812e+01  1.20739517e+01  6.87465763e+00 -1.61000639e-01 -2.00312197e-01 -3.28540146e-01
Ge  5.33518362e+00  6.12394476e+00  5.71441507e+00 -4.49387968e-01  1.06423302e-02 -4.56568114e-02
Ge  1.20714788e+01  5.98735237e+00  6.02612257e+00  1.12683900e-01  1.00468628e-01 -3.21425587e-01
Ge  5.17393112e+00  1.79142342e+01  5.83972740e+00  9.79173779e-02 -1.16383336e-01  3.28819484e-01
Ge  1.19672670e+01  1.79188271e+01  5.76863289e+00  4.05982584e-02  1.37958050e-01 -2.03262433e-01
Ge  5.36329317e+00  6.19464684e+00  1.20330563e+01  5.62396087e-02 -9.09746736e-02 -7.97753409e-02
Ge  1.21104813e+01  5.77898788e+00  1.25263853e+01 -1.05884738e-01  2.24007577e-01 -6.90341294e-02
Ge  5.18495274e+00  1.77779541e+01  1.20527391e+01  4.11406368e-01  6.22374654e-01 -7.88635015e-02
Ge  1.19847393e+01  1.80831089e+01  1.19254112e+01  1.06812254e-01  1.96656883e-01 -4.31990266e-01
Ge  1.34453118e+00  6.17546320e+00  6.26895285e+00  2.51836568e-01  3.73068191e-02 -3.42372417e-01
Ge  7.85641241e+00  6.08750200e+00  5.77525330e+00  1.15545559e+00 -5.41717947e-01 -4.84859012e-02
Ge  1.28432131e+00  1.79204445e+01  5.76785469e+00  9.09017399e-02 -2.02004656e-01 -3.64039838e-01
Ge  7.84655905e+00  1.77187519e+01  5.77235746e+00  3.83905947e-01  5.19220173e-01  3.44390810e-01
Ge  1.34770525e+00  6.19224024e+00  1.23415422e+01 -7.76975825e-02 -4.08856496e-02  5.36529906e-02
Ge  8.10664177e+00  6.12949228e+00  1.20725460e+01 -3.44073534e-01 -7.34106958e-01  2.00437009e-01
Ge  1.30447817e+00  1.77362099e+01  1.22268753e+01 -3.02094251e-01 -9.12853181e-02 -2.61181891e-01
Ge  7.89115953e+00  1.77642078e+01  1.21676321e+01  1.84937224e-01  3.38980824e-01  3.66179228e-01
Ge  3.58736992e-01  4.83921766e+00  4.34936285e+00 -3.23230952e-01  7.57460371e-02  3.21366608e-01
Ge  6.61280012e+00  4.74136829e+00  3.90661693e+00  7.88855106e-02  2.30404779e-01  4.87259060e-01
Ge  1.32161102e+01  1.64264946e+01  4.13477468e+00  1.55445009e-01  4.36592191e-01 -1.21226519e-01
Ge  6.47924423e+00  1.65017052e+01  4.12321043e+00 -3.00089598e-01  1.66876167e-01 -5.29552937e-01
Ge  8.42873305e-02  4.91725349e+00  1.05151081e+01 -1.83866099e-02 -1.73387185e-01  1.65939927e-01
Ge  6.66337967e+00  4.59023237e+00  1.05355968e+01  1.59176424e-01 -7.52654970e-02 -2.32316285e-01
Ge  1.32912283e+01  1.65273571e+01  1.03971100e+01  2.43887156e-01 -1.45847455e-01 -2.08754286e-01
Ge  6.65889883e+00  1.64811630e+01  1.04351292e+01 -4.42194007e-02 -2.20850676e-01 -4.93756235e-01
Ge  1.46571070e-01  7.55322742e+00  4.45553017e+00 -8.45466107e-02 -2.93483108e-01  2.11095333e-01
Ge  6.83251429e+00  7.47019768e+00  4.01855278e+00 -4.85893756e-01  7.45242983e-02  6.06532395e-02
Ge  7.37273172e-02  1.92137089e+01  3.97273779e+00 -3.69138032e-01 -4.69139963e-01  7.84616917e-02
Ge  6.53395224e+00  1.92766037e+01  4.16478586e+00  1.81657076e-01 -3.15606058e-01 -9.72432792e-02
Ge  1.29946451e+01  7.51953459e+00  1.08873482e+01  3.05753559e-01 -2.50926256e-01 -4.13897663e-01
Ge  6.86160183e+00  7.23395586e+00  1.02208128e+01 -3.05708319e-01  2.32417747e-01 -1.76195145e-01
Ge  4.09348339e-01  1.91426392e+01  1.02855654e+01 -5.85271657e-01 -3.60534899e-02  2.74477992e-03
Ge  6.67493153e+00  1.91736565e+01  1.03926048e+01 -1.21188290e-01  9.34168044e-03  3.01145643e-01
Ge  3.45872879e+00  1.26106894e+00  2.16571808e+00  1.14172593e-01 -2.45867684e-01 -4.53836948e-01
Ge  1.02282658e+01  1.29154611e+00  2.21725917e+00  9.90583375e-02 -3.48732203e-01 -5.91087937e-01
Ge  3.60877037e+00  1.34261608e+01  1.88663971e+00 -6.87647939e-01 -2.54540592e-01  2.66405433e-01
Ge  9.73719311e+00  1.33696203e+01  2.20962596e+00  7.04903245e-01 -5.59214532e-01 -5.64851105e-01
Ge  3.51407385e+00  1.23261189e+00  8.38420200e+00 -1.66904688e-01  4.41640049e-01 -3.75430822e-01
Ge  9.88343334e+00  1.34072876e+00  8.51514626e+00  1.46468729e-01  1.34264678e-01 -7.92847425e-02
Ge  3.55894876e+00  1.32560625e+01  8.29828739e+00 -1.21297970e-01 -8.24768484e-01 -3.86230201e-01
Ge  9.75036526e+00  1.31622372e+01  8.46759892e+00 -1.10804588e-01 -1.21119536e-01  2.99836397e-01
Ge  2.97756076e+00  1.07324591e+01  1.94012344e+00  6.04123116e-01  7.83723891e-02  4.57448751e-01
Ge  1.02486744e+01  1.06968613e+01  2.30321598e+00 -4.17681694e-01  3.17478061e-01 -5.08379757e-01
Ge  3.38811684e+00  2.24878654e+01  1.96187735e+00 -3.72623891e-01  1.06717080e-01  1.21969134e-01
Ge  1.02436895e+01  2.24317837e+01  2.12829065e+00  2.66984496e-02  5.59515655e-01 -2.01233119e-01
Ge  3.50034928e+00  1.04574518e+01  8.36824989e+00  1.38355821e-01  5.90110302e-01  1.46890298e-01
Ge  9.99860001e+00  1.04397011e+01  8.29664803e+00  1.47584707e-01  1.57487780e-01  6.13269508e-01
Ge  3.36400461e+00  2.25443497e+01  8.16570282e+00 -6.91834977e-03 -5.93498088e-02  2.03666419e-01
Ge  9.89496231e+00  2.25854740e+01  8.36523628e+00  2.16225877e-01 -4.08404499e-01  4.12666678e-01
128
energy=-397.41714 config_type=FromPyNEP pbc="T T T" Lattice="13.373357772827148 0.0 0.0 0.0 23.912086486816406 0.0 0.0 0.0 12.548447608947754" Properties=species:S:1:pos:R:3:force:R:3
K   2.08625853e-01  8.98255253e+00  1.12042367e+00 -1.14424400e-01  4.92920697e-01 -1.31827280e-01
K   6.63418913e+00  9.01254845e+00  7.88786113e-01  1.05785161e-01  5.37221916e-02 -4.31000008e-05
K   1.33493509e+01  2.11167068e+01  7.93139279e-01  9.81238633e-02 -1.65553801e-02  2.14326575e-01
K   6.55851030e+00  2.09669075e+01  5.98265707e-01  1.38984218e-01  7.13009685e-02  3.93379033e-01
K   1.34833544e-01  8.92818260e+00  7.11515951e+00 -1.79685175e-01  3.96191627e-01  1.42335206e-01
K   6.51027012e+00  9.18196487e+00  7.35467529e+00  3.88622403e-01  3.29296011e-03  1.52935004e-02
K   2.09362864e-01  2.14185829e+01  7.17981291e+00 -4.15369838e-01 -3.28730315e-01  1.49147436e-01
K   6.69708586e+00  2.09998474e+01  7.56895685e+00 -6.21058717e-02  2.43243828e-01 -1.94474105e-02
K   1.32798624e+01  2.89345169e+00  1.36462319e+00  1.72925964e-01 -6.65158778e-02 -2.54179806e-01
K   6.77264357e+00  2.85544443e+00  1.34427154e+00 -2.71783948e-01 -5.66933304e-02 -1.76059648e-01
K   1.33101749e+01  1.44433651e+01  7.82625973e-01  7.42257833e-02  6.55548632e-01  1.87846795e-02
K   6.67615271e+00  1.46904764e+01  1.07188404e+00 -7.39970012e-04 -1.27121761e-01 -1.02926143e-01
K   1.33359804e+01  2.80227637e+00  7.26392651e+00 -5.06285019e-03  1.75991803e-02 -2.18096096e-02
K   6.69268179e+00  2.95790172e+00  7.46027899e+00 -9.45617035e-02 -3.20706427e-01 -3.86106640e-01
K   7.46178627e-02  1.47910500e+01  7.75135326e+00  1.44929998e-03 -9.65909287e-02 -1.92424253e-01
K   6.79495049e+00  1.45904827e+01  7.18344784e+00 -2.64039218e-01  2.57419139e-01  1.01881057e-01
K   3.63313794e+00  8.87125111e+00  5.29120731e+00 -5.51366985e-01  1.64056301e-01 -2.11304262e-01
K   9.95937634e+00  8.79298019e+00  5.44185019e+00  2.98127681e-01  2.12911963e-01 -3.32291722e-01
K   3.36957479e+00  2.07366562e+01  5.14621496e+00  3.78139913e-02  1.62039354e-01 -1.12954870e-01
K   9.99576950e+00  2.08229332e+01  5.53610182e+00  3.61463204e-02  9.98672005e-03 -1.13206990e-01
K   3.32422066e+00  8.61922169e+00  1.16588850e+01 -2.60410402e-02  1.71563178e-01 -7.36382827e-02
K   1.02074900e+01  8.78807926e+00  1.14377127e+01 -1.80698797e-01 -1.51816055e-01  4.18570004e-02
K   3.39406943e+00  2.06333771e+01  1.13909197e+01 -4.85229716e-02 -8.34774002e-02  2.21592635e-01
K   1.02537851e+01  2.08936825e+01  1.13671865e+01 -2.92995214e-01 -2.15433180e-01  9.28233787e-02
K   3.46544647e+00  3.21175885e+00  5.41300821e+00 -3.67547795e-02  2.32086048e-01 -5.79840392e-02
K   9.86108875e+00  3.25859571e+00  5.53473091e+00  1.58467293e-02  1.08175091e-01 -2.43582711e-01
K   3.28741264e+00  1.52313862e+01  5.22344303e+00  7.87836835e-02 -2.22721130e-01  1.30061194e-01
K   1.01457968e+01  1.52652254e+01  5.54424667e+00  1.14835799e-02 -8.37427378e-02 -1.61218077e-01
K   3.10813093e+00  2.94631863e+00  1.11678162e+01  1.28178075e-01  2.61478633e-01  3.93953443e-01
K   1.00642328e+01  3.05578399e+00  1.14184189e+01 -6.14942610e-02  1.51521862e-01  1.73335284e-01
K   3.19534564e+00  1.51971254e+01  1.13431721e+01  1.98063150e-01 -2.33562201e-01  3.35392803e-02
K   9.93461323e+00  1.48776197e+01  1.16037703e+01 -5.51059097e-02  1.77183345e-01  6.29361123e-02
K   6.76503405e-02  2.34418488e+01  3.55433035e+00 -2.20360383e-01  4.19261307e-02  1.95030607e-02
K   6.61427116e+00  2.34296837e+01  3.64293456e+00 -2.65401099e-02  1.72172599e-02 -5.16916998e-02
K   1.50268942e-01  1.23293657e+01  3.59511089e+00 -1.95557699e-01 -1.80427507e-01  6.00731708e-02
K   6.62219620e+00  1.17265673e+01  3.47376251e+00  3.67607884e-02 -6.32180017e-04  2.53292006e-02
K   1.94479793e-01  1.26090825e-01  1.02672644e+01 -3.24659556e-01  1.22917652e-01 -4.28957492e-01
K   6.90459156e+00  5.08514702e-01  1.01075764e+01 -9.71454680e-02 -8.52475837e-02 -1.26608700e-01
K   1.18111230e-01  1.12275791e+01  9.87406063e+00  3.50448899e-02  7.11447969e-02 -9.73548070e-02
K   6.75294209e+00  1.18895149e+01  9.48772717e+00  6.44489005e-03  5.62943816e-02  3.83999497e-01
K   3.18266249e+00  5.97475195e+00  2.57782817e+00  1.31020457e-01 -6.87541068e-02  7.21755400e-02