128
Lattice="13.37335811 0.0 0.0 0.0 23.91208685 0.0 0.0 0.0 12.5484474" Properties=species:S:1:pos:R:3:forces:R:3 energy=-397.69043293 stress="-0.0028061780590426153 -0.00010865575476508665 -1.8853732858064684e-05 -0.00010865575476508665 0.0008791713296232365 3.952405070570856e-05 -1.8853732858064684e-05 3.952405070570856e-05 -0.001385562697133572" free_energy=-397.69043293 pbc="T T T"
K        0.18741411       9.19480022       1.24512685      -0.13144704       0.11210287      -0.04056623
K        7.01921991       8.91271842       1.28173255      -0.11288965       0.43021848      -0.12677509
K       13.28821703      21.21489097       1.20829916      -0.00716968      -0.16809687       0.05893157
K        6.81597482      20.97951497       1.18136580      -0.14130634       0.17351922      -0.30876381
K       13.25920165       9.19849679       7.29632636       0.21909441      -0.01160832       0.02268446
K        6.62252144       8.94750237       7.30470120      -0.00227847       0.22553293      -0.16913281
K       13.36586555      21.35848616       7.31467131       0.11403982      -0.52198625      -0.33812795
K        6.47862317      21.13489739       7.14422902       0.05895765      -0.05330558       0.02905853
K       13.22437181       2.88413914       1.03613885       0.09570137       0.19047439      -0.19933402
K        6.55716076       2.90242973       1.19531340       0.01095938      -0.13379348      -0.19194639
K        0.31799746      14.82681260       0.84338567      -0.19849915      -0.03390152      -0.07227210
K        6.73141641      14.85865011       0.81601023       0.09667089       0.00568913       0.10866566
K        0.03626253       2.76339506       7.38893403      -0.05253248       0.28930089      -0.01637100
K        6.41747576       2.88369485       7.31580733       0.15869079      -0.19997401       0.15412533
K        0.04605584      14.76641880       7.15920571       0.06235508       0.10320054       0.21972264
K        6.40669978      14.63234564       7.43903245       0.10140482      -0.00574582       0.05542787
K        3.19169220       8.82026233       5.44065581       0.04356474      -0.27016489      -0.16629538
K       10.33572111       8.85977323       5.20923346      -0.35690443       0.22151456      -0.13484702
K        3.14118129      20.82932746       4.81409364       0.02119720      -0.14270227       0.28763940
K        9.93070522      20.64847007       5.40419304       0.14074019      -0.00976673      -0.10711155
K        3.47118228       8.58286170      11.71752585       0.02802277       0.26799520      -0.32657921
K       10.39368753       9.06223113      11.91553734      -0.11620449      -0.08988663      -0.28264295
K        3.01852166      20.64444255      11.52475861       0.27277313       0.20123457       0.02097743
K       10.40155762      20.60861340      11.68419530      -0.33902205       0.08881547       0.02421435
K        3.44054445       3.20912520       4.93316259      -0.16415887       0.09354685       0.11399196
K        9.80176171       3.17563465       5.39002697       0.33026938      -0.38644558       0.13670229
K        3.30317853      14.85009986       5.04996053       0.01065409       0.22198384       0.13387209
K        9.87665799      14.98162471       5.44749196      -0.01317104       0.49279754      -0.07909605
K        3.49507057       3.32813590      11.41883064      -0.10451099      -0.13715536       0.09202050
K       10.00741226       3.13088198      11.50710947       0.04238017       0.09041742      -0.00934691
K        3.59299458      14.98775194      11.58230002      -0.07706872       0.22372920      -0.16817237
K        9.85067704      14.94422860      11.10261793       0.11683860       0.58545545       0.51617354
K       13.25746807       0.34914110       3.55166587       0.01663845       0.00155882       0.09867489
K        6.83542343      23.77090272       3.55157163      -0.19498559       0.08838326       0.09336829
K       13.17006394      12.62300844       3.52044646       0.11430948      -0.14180512       0.14223582
K        6.88395909      12.30295807       3.74902020      -0.23024224      -0.08058016      -0.12896977
K       13.28684599      23.69621953       9.54556817       0.05395114       0.22365400       0.49922236
K        6.57897685      23.68997034       9.90256761       0.08108787      -0.01612696       0.04991992
K        0.35301105      11.91565089       9.82407544      -0.16300978      -0.00923818       0.04175057
K        7.10773228      11.26953028      10.08983487      -0.18253490      -0.00876672      -0.12898773
K        3.38358919       6.51207737       2.61088769       0.15748817      -0.11777354      -0.00430790
K       10.24826309       5.64852057       2.81122340      -0.12462073       0.10013185      -0.16439333
K        3.20828198      17.94467087       2.50745523       0.23585621      -0.08532548       0.12553945
K        9.90177062      17.69217190       3.05841614       0.32483547       0.00508972      -0.30988492
K        3.09048463       5.93140940       8.88676879      -0.00219358       0.07038678      -0.08269823
K       10.00232196       6.13247084       8.98841134      -0.14129713       0.06668981       0.23578468
K        3.15216751      18.01274619       8.88922352       0.23926924      -0.09633347       0.08234738
K        9.59361221      18.18990605       8.95121121       0.40682869       0.05250852      -0.05516472
Li       0.12233319       5.96272969       2.05456520      -0.06050040      -0.20265755      -0.74148414
Li       7.02186877       5.90473260       2.00082534      -0.21926761      -0.14234190      -0.10864143
Li       0.07588297      17.94334398       1.95883974      -0.15258942       0.01506499      -0.13193637
Li       6.85030717      17.97514873       1.81502500       0.03732295      -0.13138116       0.28395805
Li      12.96309558       6.10279498       8.11480148       0.54192120      -0.12907940       0.44877447
Li       6.63978551       5.96964818       8.24765428      -0.01092132       0.01822698      -0.26347939
Li       0.01726273      18.24821257       8.27769124      -0.31504185      -0.32014821      -0.48099603
Li       6.59088743      17.88730146       8.05301870      -0.34884750       0.11454742      -0.13444293
Li       3.34128953       0.01715620       4.32904056       0.20477233       0.01882358      -0.51616492
Li       9.98958062      23.74522018       4.30941817       0.17716683       0.48204275       0.80423829
Li       3.45140081      11.70994907       4.12183495      -0.04353544      -0.12370420       0.81583856
Li       9.90041643      12.26973127       4.47205120       0.17751345      -0.54738942      -0.02958215
Li       3.02548449       0.04776009      10.51683268      -0.07627266       0.21101730       0.18799884
Li      10.10344902      23.70527480      10.87276061      -0.14242939      -0.09460773      -0.46277877
Li       3.71160757      11.96276750      10.61387698      -0.10042640      -0.27108316      -0.18102841
Li      10.19603786      12.17963889      10.47635051       0.16776825      -0.14165586       0.81444257
Ge       1.56151689       0.11150493       0.44490207       1.00843342       0.22938842       0.00137402
Ge       8.66824015      23.80603603       0.45136991      -0.49724065      -0.18171887      -0.20528796
Ge       2.16067677      11.96924385       0.23502615       0.39900001       0.06050826       0.17652333
Ge       8.67027798      11.97984313       0.38750045       0.36269951       0.43837467       0.09054102
Ge       1.95397841       0.13647919       6.36857334       0.28711810      -0.28497728       0.89124835
Ge       8.96327743      23.89417024       6.75366474      -0.88213172      -0.36122593      -0.16517407
Ge       2.03550401      11.87521388       6.45121026      -0.93758168      -0.21316478      -0.18386875
Ge       8.68196082      11.75074573       6.87682788       0.15439559       0.50543982      -0.40662262
Ge       4.33814472       0.06945696       0.13124032       0.04205286      -0.00274270       0.01285930
Ge      11.26827306       0.13578192       0.51587721       0.24395531      -0.12219029       0.22175123
Ge       4.99297829      11.91276996       0.41161543      -0.70666412      -0.22210877       0.33806242
Ge      11.38265084      12.31594329       0.57469442       0.25732125      -0.01562335      -0.84130948
Ge       4.59773083       0.00873006       6.75904652      -0.02278679      -0.15950886      -0.21916497
Ge      11.48903898       0.11072277       6.83370049       0.00624235      -0.14947949      -0.16391069
Ge       4.55147319      11.91243830       6.62670796       1.42914476      -0.20042758      -0.87807150
Ge      11.43416167      12.09059267       6.67058737      -0.17516324      -0.17238002      -0.44148277
Ge       5.43174680       5.91395119       5.78715760      -0.23469174      -0.14933968       0.48092357
Ge      11.84444507       5.96984330       5.85994047       0.15955696      -0.10154230      -0.27765057
Ge       5.22047556      17.69547990       5.59536273      -0.17737402      -0.07451518       0.63703241
Ge      12.02093728      17.70644000       5.89139993       0.12250395       0.22896578       0.19265460
Ge       5.57692798       6.08940732      12.09988119      -0.60217501      -0.50541838       0.30756275
Ge      12.15003459       6.27427693      12.19620947      -0.17738413      -0.55338635       0.11012767
Ge       5.47326867      17.99813781      12.30747818      -0.39283936      -0.34868816      -0.71872615
Ge      12.00210185      17.63101220      12.38679780       0.59109352       0.24573151      -1.17593697
Ge       1.13403937       5.89884975       5.89892235       0.19217910      -0.23102812       0.05645100
Ge       8.13166879       6.05448420       6.01830000      -0.40034465       0.14951263      -0.34623587
Ge       1.37337394      17.81121942       6.00777336      -0.45228508      -0.04073749      -0.59028299
Ge       7.91890081      17.95198988       5.88425033       0.05611358       0.02928773       0.26769340
Ge       1.39075997       5.97195187      12.23065571       0.20942272      -0.32356400       0.18273252
Ge       8.13202667       6.10728280      12.23478139       0.72491062      -0.13463062      -0.07506154
Ge       1.33526053      17.78308040      12.16778811      -0.09563179       0.16554681      -0.03035915
Ge       8.07002149      18.04028550      11.98640056       0.17712917       0.47595078       0.00665417
Ge      13.17066735       4.43437575       4.20683047       0.12875416       0.56693830       0.36297782
Ge       6.98330856       4.43832818       4.34867687      -0.25064936       0.77694178      -0.27920395
Ge       0.00585927      16.48076287       4.09895135       0.29929048       0.08029916       0.44587443
Ge       6.91080530      16.56521294       4.05850695      -0.23052233      -0.29151990      -0.25937599
Ge      13.37211639       4.69645748      10.43929545      -0.13108220       0.29425654       0.30107623
Ge       7.02133584       4.69491659      10.39551919      -0.19795565       0.05639520       0.45496269
Ge       0.05774563      16.62323730      10.29914197      -0.38467879       0.15465841       0.61583386
Ge       6.72785215      16.75780304      10.29566316      -0.55557351      -0.38441090       0.46542048
Ge      13.30428498       7.21110156       4.11281061      -0.17429291      -0.05113224       0.44744241
Ge       6.71791334       7.26478849       4.14269586       0.42959400      -0.40574951       0.24294018
Ge      13.35381642      19.13855521       4.22723074       0.06840206       0.05740660       0.18167701
Ge       6.56219716      19.22560979       4.14817200       0.19342933       0.29385329      -0.37525434
Ge       0.28115680       7.38231521      10.50058245      -0.18866493       0.38348147      -0.58367971
Ge       6.88931552       7.38741159      10.42748335       0.18300797       0.33838880      -0.15388104
Ge      13.31073094      19.30627961      10.57016522      -0.12956714      -0.47950658       0.67508131
Ge       6.35344988      19.36608422      10.35943600       0.36496837       0.08116206       0.19256647
Ge       3.37074074       1.47197952       2.01253932      -0.43021818      -0.73966130      -0.18520601
Ge       9.72437463       1.48342768       2.07523927       0.30886020      -0.39596547       0.47382096
Ge       3.45035474      13.13886460       2.16625491       0.04754006      -0.10581591      -0.87927858
Ge       9.88745792      13.58984728       2.15421292      -0.32203812      -0.13777310      -0.14472693
Ge       3.14992319       1.52963754       8.19888687      -0.09385986      -0.61577545       0.10752580
Ge      10.00001799       1.14907836       8.69954482       0.16024662      -0.29203781      -0.23852595
Ge       3.20337022      13.01675825       8.34250987      -0.14693157       1.11487259       0.56589695
Ge      10.09160771      13.51428126       8.26252632      -0.21861376      -0.76117827       0.11521703
Ge       3.31593538      10.45965659       1.91288281       0.40042969       0.27390869      -0.11207517
Ge      10.10978772      10.90523920       2.16753937      -0.14696843      -0.33569247       0.64221223
Ge       3.19060133      22.57764032       1.87306646       0.07711167       0.42729361       0.37168900
Ge      10.03927776      22.53623224       2.22948127      -0.03642526       0.35210892      -0.51149669
Ge       3.29534482      10.45076130       8.23376904      -0.15808892      -0.52963086       0.49154369
Ge      10.31884754      10.73738185       8.46739177       0.12155255      -0.08029022       0.14641715
Ge       3.06818910      22.58124053       8.39261093       0.00916114       0.75923245      -0.84888542
Ge      10.22561090      22.23823073       8.38332207      -0.20036108       0.95351112      -0.01961145
128
Lattice="13.37335811 0.0 0.0 0.0 23.91208685 0.0 0.0 0.0 12.5484474" Properties=species:S:1:pos:R:3:forces:R:3 energy=-397.80738744 stress="-0.0005187757574348947 0.0004183676264513871 -0.0004787995218760341 0.0004183676264513871 -0.00037568752544863 0.0008129670368986076 -0.0004787995218760341 0.0008129670368986076 -0.0009370130050021512" free_energy=-397.80738744 pbc="T T T"
K        0.14593650       9.34177801       1.03926392      -0.21019666      -0.03401980       0.29506647
K        6.62954794       8.93126941       0.98000187      -0.11102223       0.64437363      -0.21510834
K        0.24088053      20.83168687       0.64410566      -0.22528233       0.34894680       0.27903681
K        6.61449034      20.91536626       1.13501773       0.05769273       0.20034690      -0.22535715
K       13.23258560       9.20836794       7.68582553       0.06888181       0.09201109      -0.18784750
K        6.83562630       9.05181239       7.37807975      -0.19024503      -0.17671308      -0.03433954
K       13.06110504      21.10349078       7.29268681       0.26234117      -0.08274890       0.13351413
K        6.70846105      21.20247056       7.19590064      -0.03621994      -0.16662290       0.18803612
K       13.25515809       2.88977187       1.17680720       0.13260930      -0.00917145       0.19086674
K        6.99953392       2.84449912       0.97942652      -0.16323362      -0.04573574       0.06358337
K        0.25613752      14.52352556       1.22327912      -0.19662499       0.47199910      -0.15527801
K        6.93348973      14.60186538       1.09510715      -0.39690429       0.27771954      -0.05883362
K        0.20107165       2.86804104       7.55651302      -0.19456480       0.26228151      -0.14980985
K        6.49650857       2.92219475       7.20165184       0.16685239      -0.09718150      -0.19001499
K        0.31641566      14.71437964       7.22683959      -0.09911603      -0.05151474       0.09292598
K        6.57383747      14.70397095       7.08160938      -0.11775750       0.00581444       0.20724402
K        3.38641418       9.08154636       5.40681353      -0.06506688      -0.74832092      -0.36906822
K       10.06404977       8.89557512       5.16628577       0.15980805      -0.19805717       0.02450897
K        3.35371458      20.77405204       5.33339733      -0.10099200      -0.22782682      -0.09188194
K       10.08490298      20.56901546       5.08418592      -0.20238962       0.17792530      -0.00012937
K        3.09571870       8.82765451      11.30983621       0.18391334       0.04508221       0.21096457
K        9.95843461       8.60822429      11.72052167       0.19479734       0.55316966       0.11806470
K        3.30255961      20.98898584      11.38194724       0.14891014      -0.35122124      -0.07717980
K        9.74984539      20.82212681      11.40926295       0.12112030      -0.22358700       0.12049950
K        3.15275339       3.18838458       5.21425572       0.20836118      -0.16160403      -0.01021834
K       10.21108315       3.19705701       5.11488971      -0.04666085       0.10904914       0.28211341
K        3.22568099      15.20007836       4.86926979       0.15817218      -0.07564657       0.14298709
K        9.85701333      14.87438426       5.51366406       0.10330234       0.51228821      -0.09819097
K        3.13931986       3.21958578      11.67401763       0.20374115      -0.03772404       0.04795851
K       10.39695839       3.28476368      11.21278087      -0.31721522      -0.20948986       0.20702886
K        3.53050141      15.23377790      11.40772602      -0.29883553      -0.57446805      -0.01005762
K       10.11280876      15.20543634      11.27973801       0.00671808      -0.17040341       0.22210148
K       13.35982935      23.68506095       3.59865341       0.02664930      -0.03267010      -0.13534655
K        6.61607882      23.69803470       3.70850264       0.15052385       0.11442650      -0.20599083
K       13.19833950      12.44204798       4.07793483       0.01232696      -0.24766330      -0.23618241
K        6.77117835      11.36397824       3.75321954      -0.07276914       0.07907269      -0.23098830
K       13.22923610       0.34493855      10.12407971       0.18551738      -0.19439175      -0.25091547
K        6.71166584       0.61422045      10.02264960       0.09038074      -0.10360580      -0.03754577
K        0.33838287      12.22536215      10.03161321      -0.29698264       0.07236707      -0.28093190
K        6.97305187      11.85601582       9.95449899      -0.31590798       0.04616784      -0.04866464
K        3.45573351       6.15021480       3.02562655      -0.22963291       0.09632145      -0.26023723
K        9.62038620       5.86975711       2.62850872       0.40276709       0.04457742       0.03454515
K        3.23717098      17.97573912       2.43001211      -0.14299792       0.05254376       0.15027734
K        9.75323072      17.70945197       2.62045726      -0.04770027      -0.07729107       0.05914142
K        3.39951940       5.99058560       9.02705001       0.10819954      -0.00668079      -0.07140250
K       10.05828772       6.18054872       9.09924600       0.02228890       0.01294382      -0.24410269
K        3.13768068      17.92176285       9.05012924       0.40795111      -0.00962240      -0.21826113
K        9.88028231      17.90423433       8.71187468       0.28233805       0.05606890       0.13687157
Li       0.00167421       6.18423429       2.22745658       0.01991066       0.01171084      -0.23885765
Li       6.61497940       6.22545968       1.73322129      -0.08361463      -0.43585833       0.02481243
Li      12.87370471      17.79882650       1.68274931       0.41419215      -0.07363523       0.46982791
Li       6.39379288      17.93898003       1.82743265       0.18596077      -0.25270374       0.11845580
Li      13.36005242       6.25524051       8.32671075      -0.16886804      -0.14619628       0.41287293
Li       6.82438800       5.81436596       7.98625933      -0.18989061       0.14122701       0.43379274
Li       0.02730064      17.71441636       7.84851125      -0.17472471       0.20555613       0.97927504
Li       6.89451428      17.95496956       8.16971637      -0.58839138      -0.16154813      -0.22491184
Li       3.31210284      23.69889912       4.35538100      -0.02898419       0.29984543      -0.07044603
Li      10.14859293       0.14147180       4.48185467      -0.14318273      -0.34795155       0.07573634
Li       3.15192077      11.97291316       4.30338024       0.29498484       0.06562450      -0.21628357
Li       9.98548075      12.15969358       4.51862288      -0.03077813      -0.37856932      -0.05996847
Li       3.56097622      23.87996766      10.47309858      -0.31610613      -0.02400464       0.42543116
Li       9.92231611      23.80777468      10.68805487       0.05927414       0.14156734       0.06198673
Li       3.57527849      11.87067871      10.69557741       0.01866380       0.15174923      -0.75604611
Li      10.07537138      11.81823209      10.75283911       0.16251897       0.00149577      -0.09475389
Ge       1.87945791       0.13851459       0.40970656       0.69233331      -0.32248422       0.08627707
Ge       8.82822376      23.89993473       0.50956396      -0.18818038      -0.09886617       0.13482816
Ge       2.00671344      12.13135250       0.14092170       0.51084552       0.26530336       0.29880345
Ge       8.60485471      11.84483716       0.44763863       0.99332589      -0.33633222       0.57977434
Ge       1.89127796       0.13790483       6.67348593       0.62438388      -0.18390007      -0.05464137
Ge       8.63206522       0.04482847       6.74583388      -0.12356858       0.33107706      -0.70172829
Ge       2.10036172      11.67982248       6.65430111       0.24941987       0.75846757       0.34553754
Ge       8.55983344      11.72392999       6.69998788       0.35377503       0.53495647      -0.25654386
Ge       4.67486702      23.82037300       0.25209894      -0.17173816       0.50987034       0.27974274
Ge      11.47479408      23.86265626       0.29273884      -0.26025805      -0.00896474       0.66501197
Ge       4.68639646      11.85521931       0.32597591       0.28492640      -0.45652648       0.11921758
Ge      11.49760876      12.00588339       0.50308608      -1.00288880       0.38129810       0.32624823
Ge       4.79189193       0.04369336       6.53366172      -0.61341724      -0.01547430       0.06610162
Ge      11.38229872       0.07899860       6.83136460      -0.12853152       0.15938656      -0.11728617
Ge       4.86777905      11.74403743       6.56418155      -0.69263735       0.34348798       0.33788874
Ge      11.35198132      12.07395129       6.87465750      -0.16100064      -0.20031219      -0.32854016
Ge       5.33518380       6.12394498       5.71441500      -0.44938797       0.01064233      -0.04565681
Ge      12.07147868       5.98735221       6.02612270       0.11268390       0.10046863      -0.32142558
Ge       5.17393119      17.91423460       5.83972743       0.09791738      -0.11638334       0.32881948
Ge      11.96726719      17.91882620       5.76863270       0.04059826       0.13795805      -0.20326244
Ge       5.36329313       6.19464705      12.03305631       0.05623961      -0.09097467      -0.07977534
Ge      12.11048128       5.77898802      12.52638510      -0.10588474       0.22400757      -0.06903413
Ge       5.18495271      17.77795364      12.05273868       0.41140637       0.62237464      -0.07886350
Ge      11.98473935      18.08310894      11.92541159       0.10681225       0.19665688      -0.43199028
Ge       1.34453121       6.17546310       6.26895298       0.25183656       0.03730682      -0.34237242
Ge       7.85641259       6.08750201       5.77525326       1.15545556      -0.54171794      -0.04848590
Ge       1.28432128      17.92044481       5.76785470       0.09090174      -0.20200465      -0.36403985
Ge       7.84655910      17.71875186       5.77235758       0.38390595       0.51922020       0.34439080
Ge       1.34770525       6.19224029      12.34154233      -0.07769758      -0.04088565       0.05365299
Ge       8.10664149       6.12949211      12.07254565      -0.34407352      -0.73410694       0.20043701
Ge       1.30447814      17.73621055      12.22687499      -0.30209426      -0.09128532      -0.26118188
Ge       7.89115965      17.76420730      12.16763226       0.18493722       0.33898083       0.36617922
Ge       0.35873699       4.83921790       4.34936264      -0.32323096       0.07574604       0.32136662
Ge       6.61279994       4.74136821       3.90661703       0.07888551       0.23040478       0.48725907
Ge      13.21611042      16.42649391       4.13477491       0.15544501       0.43659219      -0.12122652
Ge       6.47924423      16.50170579       4.12321038      -0.30008959       0.16687616      -0.52955296
Ge       0.08428733       4.91725332      10.51510840      -0.01838661      -0.17338718       0.16593993
Ge       6.66337972       4.59023234      10.53559663       0.15917643      -0.07526550      -0.23231629
Ge      13.29122857      16.52735724      10.39711033       0.24388716      -0.14584745      -0.20875428
Ge       6.65889898      16.48116244      10.43512912      -0.04421940      -0.22085067      -0.49375624
Ge       0.14657107       7.55322733       4.45553004      -0.08454661      -0.29348312       0.21109534
Ge       6.83251405       7.47019786       4.01855257      -0.48589377       0.07452430       0.06065324
Ge       0.07372732      19.21370970       3.97273768      -0.36913803      -0.46913997       0.07846169
Ge       6.53395223      19.27660399       4.16478602       0.18165708      -0.31560606      -0.09724328
Ge      12.99464547       7.51953472      10.88734793       0.30575357      -0.25092627      -0.41389765
Ge       6.86160164       7.23395577      10.22081280      -0.30570833       0.23241775      -0.17619514
Ge       0.40934833      19.14263892      10.28556555      -0.58527163      -0.03605349       0.00274478
Ge       6.67493163      19.17365576      10.39260494      -0.12118829       0.00934168       0.30114564
Ge       3.45872874       1.26106894       2.16571797       0.11417259      -0.24586768      -0.45383695
Ge      10.22826564       1.29154609       2.21725921       0.09905834      -0.34873221      -0.59108793
Ge       3.60877033      13.42616068       1.88663974      -0.68764794      -0.25454058       0.26640542
Ge       9.73719272      13.36962031       2.20962599       0.70490323      -0.55921451      -0.56485108
Ge       3.51407385       1.23261188       8.38420159      -0.16690469       0.44164004      -0.37543082
Ge       9.88343294       1.34072871       8.51514627       0.14646873       0.13426468      -0.07928474
Ge       3.55894882      13.25606253       8.29828701      -0.12129797      -0.82476847      -0.38623021
Ge       9.75036535      13.16223724       8.46759869      -0.11080459      -0.12111954       0.29983641
Ge       2.97756080      10.73245907       1.94012348       0.60412309       0.07837239       0.45744874
Ge      10.24867419      10.69686115       2.30321607      -0.41768168       0.31747806      -0.50837974
Ge       3.38811674      22.48786502       1.96187735      -0.37262388       0.10671708       0.12196913
Ge      10.24368914      22.43178305       2.12829071       0.02669845       0.55951568      -0.20123312
Ge       3.50034930      10.45745190       8.36825013       0.13835582       0.59011032       0.14689030
Ge       9.99859962      10.43970076       8.29664831       0.14758470       0.15748778       0.61326949
Ge       3.36400458      22.54435039       8.16570237      -0.00691835      -0.05934981       0.20366642
Ge       9.89496264      22.58547464       8.36523649       0.21622587      -0.40840451       0.41266668
128
Lattice="13.37335811 0.0 0.0 0.0 23.91208685 0.0 0.0 0.0 12.5484474" Properties=species:S:1:pos:R:3:forces:R:3 energy=-397.41712973 stress="-0.0004824264004139937 0.00041791325707004104 -0.0015494946048834517 0.00041791325707004104 0.0003379098552378527 -2.9057788882697448e-05 -0.0015494946048834517 -2.9057788882697448e-05 -0.0002143934916666586" free_energy=-397.41712973 pbc="T T T"
K        0.20862586       8.98255247       1.12042364      -0.11442440       0.49292069      -0.13182728
K        6.63418903       9.01254851       0.78878612       0.10578516       0.05372219      -0.00004310
K       13.34935066      21.11670603       0.79313930       0.09812386      -0.01655538       0.21432658
K        6.55851040      20.96690709       0.59826568       0.13898422       0.07130097       0.39337903
K        0.13483354       8.92818284       7.11515928      -0.17968517       0.39619164       0.14233520
K        6.51027015       9.18196469       7.35467551       0.38862239       0.00329296       0.01529350
K        0.20936286      21.41858202       7.17981277      -0.41536985      -0.32873031       0.14914744
K        6.69708593      20.99984742       7.56895682      -0.06210587       0.24324383      -0.01944741
K       13.27986229       2.89345170       1.36462320       0.17292596      -0.06651588      -0.25417982
K        6.77264354       2.85544440       1.34427150      -0.27178395      -0.05669333      -0.17605965
K       13.31017528      14.44336555       0.78262596       0.07422578       0.65554862       0.01878468
K        6.67615262      14.69047664       1.07188398      -0.00073997      -0.12712176      -0.10292614
K       13.33597998       2.80227635       7.26392640      -0.00506285       0.01759918      -0.02180961
K        6.69268195       2.95790171       7.46027898      -0.09456170      -0.32070644      -0.38610663
K        0.07461786      14.79104968       7.75135339       0.00144930      -0.09659093      -0.19242425
K        6.79495043      14.59048299       7.18344781      -0.26403923       0.25741915       0.10188106
K        3.63313792       8.87125079       5.29120744      -0.55136697       0.16405630      -0.21130426
K        9.95937663       8.79297984       5.44185042       0.29812769       0.21291196      -0.33229171