128
Lattice="13.37335811 0.0 0.0 0.0 23.91208685 0.0 0.0 0.0 12.5484474" Properties=species:S:1:pos:R:3:forces:R:3 energy=-397.69043293 stress="-0.0028061780590426153 -0.00010865575476508665 -1.8853732858064684e-05 -0.00010865575476508665 0.0008791713296232365 3.952405070570856e-05 -1.8853732858064684e-05 3.952405070570856e-05 -0.001385562697133572" free_energy=-397.69043293 pbc="T T T"
K        0.18741411       9.19480022       1.24512685      -0.13144704       0.11210287      -0.04056623
K        7.01921991       8.91271842       1.28173255      -0.11288965       0.43021848      -0.12677509
K       13.28821703      21.21489097       1.20829916      -0.00716968      -0.16809687       0.05893157
K        6.81597482      20.97951497       1.18136580      -0.14130634       0.17351922      -0.30876381
K       13.25920165       9.19849679       7.29632636       0.21909441      -0.01160832       0.02268446
K        6.62252144       8.94750237       7.30470120      -0.00227847       0.22553293      -0.16913281
K       13.36586555      21.35848616       7.31467131       0.11403982      -0.52198625      -0.33812795
K        6.47862317      21.13489739       7.14422902       0.05895765      -0.05330558       0.02905853
K       13.22437181       2.88413914       1.03613885       0.09570137       0.19047439      -0.19933402
K        6.55716076       2.90242973       1.19531340       0.01095938      -0.13379348      -0.19194639
K        0.31799746      14.82681260       0.84338567      -0.19849915      -0.03390152      -0.07227210
K        6.73141641      14.85865011       0.81601023       0.09667089       0.00568913       0.10866566
K        0.03626253       2.76339506       7.38893403      -0.05253248       0.28930089      -0.01637100
K        6.41747576       2.88369485       7.31580733       0.15869079      -0.19997401       0.15412533
K        0.04605584      14.76641880       7.15920571       0.06235508       0.10320054       0.21972264
K        6.40669978      14.63234564       7.43903245       0.10140482      -0.00574582       0.05542787
K        3.19169220       8.82026233       5.44065581       0.04356474      -0.27016489      -0.16629538
K       10.33572111       8.85977323       5.20923346      -0.35690443       0.22151456      -0.13484702
K        3.14118129      20.82932746       4.81409364       0.02119720      -0.14270227       0.28763940
K        9.93070522      20.64847007       5.40419304       0.14074019      -0.00976673      -0.10711155
K        3.47118228       8.58286170      11.71752585       0.02802277       0.26799520      -0.32657921
K       10.39368753       9.06223113      11.91553734      -0.11620449      -0.08988663      -0.28264295
K        3.01852166      20.64444255      11.52475861       0.27277313       0.20123457       0.02097743
K       10.40155762      20.60861340      11.68419530      -0.33902205       0.08881547       0.02421435
K        3.44054445       3.20912520       4.93316259      -0.16415887       0.09354685       0.11399196
K        9.80176171       3.17563465       5.39002697       0.33026938      -0.38644558       0.13670229
K        3.30317853      14.85009986       5.04996053       0.01065409       0.22198384       0.13387209
K        9.87665799      14.98162471       5.44749196      -0.01317104       0.49279754      -0.07909605
K        3.49507057       3.32813590      11.41883064      -0.10451099      -0.13715536       0.09202050
K       10.00741226       3.13088198      11.50710947       0.04238017       0.09041742      -0.00934691
K        3.59299458      14.98775194      11.58230002      -0.07706872       0.22372920      -0.16817237
K        9.85067704      14.94422860      11.10261793       0.11683860       0.58545545       0.51617354
K       13.25746807       0.34914110       3.55166587       0.01663845       0.00155882       0.09867489
K        6.83542343      23.77090272       3.55157163      -0.19498559       0.08838326       0.09336829
K       13.17006394      12.62300844       3.52044646       0.11430948      -0.14180512       0.14223582
K        6.88395909      12.30295807       3.74902020      -0.23024224      -0.08058016      -0.12896977
K       13.28684599      23.69621953       9.54556817       0.05395114       0.22365400       0.49922236
K        6.57897685      23.68997034       9.90256761       0.08108787      -0.01612696       0.04991992
K        0.35301105      11.91565089       9.82407544      -0.16300978      -0.00923818       0.04175057
K        7.10773228      11.26953028      10.08983487      -0.18253490      -0.00876672      -0.12898773
K        3.38358919       6.51207737       2.61088769       0.15748817      -0.11777354      -0.00430790
K       10.24826309       5.64852057       2.81122340      -0.12462073       0.10013185      -0.16439333
K        3.20828198      17.94467087       2.50745523       0.23585621      -0.08532548       0.12553945
K        9.90177062      17.69217190       3.05841614       0.32483547       0.00508972      -0.30988492
K        3.09048463       5.93140940       8.88676879      -0.00219358       0.07038678      -0.08269823
K       10.00232196       6.13247084       8.98841134      -0.14129713       0.06668981       0.23578468
K        3.15216751      18.01274619       8.88922352       0.23926924      -0.09633347       0.08234738
K        9.59361221      18.18990605       8.95121121       0.40682869       0.05250852      -0.05516472
Li       0.12233319       5.96272969       2.05456520      -0.06050040      -0.20265755      -0.74148414
Li       7.02186877       5.90473260       2.00082534      -0.21926761      -0.14234190      -0.10864143
Li       0.07588297      17.94334398       1.95883974      -0.15258942       0.01506499      -0.13193637
Li       6.85030717      17.97514873       1.81502500       0.03732295      -0.13138116       0.28395805
Li      12.96309558       6.10279498       8.11480148       0.54192120      -0.12907940       0.44877447
Li       6.63978551       5.96964818       8.24765428      -0.01092132       0.01822698      -0.26347939
Li       0.01726273      18.24821257       8.27769124      -0.31504185      -0.32014821      -0.48099603
Li       6.59088743      17.88730146       8.05301870      -0.34884750       0.11454742      -0.13444293
Li       3.34128953       0.01715620       4.32904056       0.20477233       0.01882358      -0.51616492
Li       9.98958062      23.74522018       4.30941817       0.17716683       0.48204275       0.80423829
Li       3.45140081      11.70994907       4.12183495      -0.04353544      -0.12370420       0.81583856
Li       9.90041643      12.26973127       4.47205120       0.17751345      -0.54738942      -0.02958215
Li       3.02548449       0.04776009      10.51683268      -0.07627266       0.21101730       0.18799884
Li      10.10344902      23.70527480      10.87276061      -0.14242939      -0.09460773      -0.46277877
Li       3.71160757      11.96276750      10.61387698      -0.10042640      -0.27108316      -0.18102841
Li      10.19603786      12.17963889      10.47635051       0.16776825      -0.14165586       0.81444257
Ge       1.56151689       0.11150493       0.44490207       1.00843342       0.22938842       0.00137402
Ge       8.66824015      23.80603603       0.45136991      -0.49724065      -0.18171887      -0.20528796
Ge       2.16067677      11.96924385       0.23502615       0.39900001       0.06050826       0.17652333
Ge       8.67027798      11.97984313       0.38750045       0.36269951       0.43837467       0.09054102
Ge       1.95397841       0.13647919       6.36857334       0.28711810      -0.28497728       0.89124835
Ge       8.96327743      23.89417024       6.75366474      -0.88213172      -0.36122593      -0.16517407
Ge       2.03550401      11.87521388       6.45121026      -0.93758168      -0.21316478      -0.18386875
Ge       8.68196082      11.75074573       6.87682788       0.15439559       0.50543982      -0.40662262
Ge       4.33814472       0.06945696       0.13124032       0.04205286      -0.00274270       0.01285930
Ge      11.26827306       0.13578192       0.51587721       0.24395531      -0.12219029       0.22175123
Ge       4.99297829      11.91276996       0.41161543      -0.70666412      -0.22210877       0.33806242
Ge      11.38265084      12.31594329       0.57469442       0.25732125      -0.01562335      -0.84130948
Ge       4.59773083       0.00873006       6.75904652      -0.02278679      -0.15950886      -0.21916497
Ge      11.48903898       0.11072277       6.83370049       0.00624235      -0.14947949      -0.16391069
Ge       4.55147319      11.91243830       6.62670796       1.42914476      -0.20042758      -0.87807150
Ge      11.43416167      12.09059267       6.67058737      -0.17516324      -0.17238002      -0.44148277
Ge       5.43174680       5.91395119       5.78715760      -0.23469174      -0.14933968       0.48092357
Ge      11.84444507       5.96984330       5.85994047       0.15955696      -0.10154230      -0.27765057
Ge       5.22047556      17.69547990       5.59536273      -0.17737402      -0.07451518       0.63703241
Ge      12.02093728      17.70644000       5.89139993       0.12250395       0.22896578       0.19265460
Ge       5.57692798       6.08940732      12.09988119      -0.60217501      -0.50541838       0.30756275
Ge      12.15003459       6.27427693      12.19620947      -0.17738413      -0.55338635       0.11012767
Ge       5.47326867      17.99813781      12.30747818      -0.39283936      -0.34868816      -0.71872615
Ge      12.00210185      17.63101220      12.38679780       0.59109352       0.24573151      -1.17593697
Ge       1.13403937       5.89884975       5.89892235       0.19217910      -0.23102812       0.05645100
Ge       8.13166879       6.05448420       6.01830000      -0.40034465       0.14951263      -0.34623587
Ge       1.37337394      17.81121942       6.00777336      -0.45228508      -0.04073749      -0.59028299
Ge       7.91890081      17.95198988       5.88425033       0.05611358       0.02928773       0.26769340
Ge       1.39075997       5.97195187      12.23065571       0.20942272      -0.32356400       0.18273252
Ge       8.13202667       6.10728280      12.23478139       0.72491062      -0.13463062      -0.07506154
Ge       1.33526053      17.78308040      12.16778811      -0.09563179       0.16554681      -0.03035915
Ge       8.07002149      18.04028550      11.98640056       0.17712917       0.47595078       0.00665417
Ge      13.17066735       4.43437575       4.20683047       0.12875416       0.56693830       0.36297782
Ge       6.98330856       4.43832818       4.34867687      -0.25064936       0.77694178      -0.27920395
Ge       0.00585927      16.48076287       4.09895135       0.29929048       0.08029916       0.44587443
Ge       6.91080530      16.56521294       4.05850695      -0.23052233      -0.29151990      -0.25937599
Ge      13.37211639       4.69645748      10.43929545      -0.13108220       0.29425654       0.30107623
Ge       7.02133584       4.69491659      10.39551919      -0.19795565       0.05639520       0.45496269
Ge       0.05774563      16.62323730      10.29914197      -0.38467879       0.15465841       0.61583386
Ge       6.72785215      16.75780304      10.29566316      -0.55557351      -0.38441090       0.46542048
Ge      13.30428498       7.21110156       4.11281061      -0.17429291      -0.05113224       0.44744241
Ge       6.71791334       7.26478849       4.14269586       0.42959400      -0.40574951       0.24294018
Ge      13.35381642      19.13855521       4.22723074       0.06840206       0.05740660       0.18167701
Ge       6.56219716      19.22560979       4.14817200       0.19342933       0.29385329      -0.37525434
Ge       0.28115680       7.38231521      10.50058245      -0.18866493       0.38348147      -0.58367971
Ge       6.88931552       7.38741159      10.42748335       0.18300797       0.33838880      -0.15388104
Ge      13.31073094      19.30627961      10.57016522      -0.12956714      -0.47950658       0.67508131
Ge       6.35344988      19.36608422      10.35943600       0.36496837       0.08116206       0.19256647
Ge       3.37074074       1.47197952       2.01253932      -0.43021818      -0.73966130      -0.18520601
Ge       9.72437463       1.48342768       2.07523927       0.30886020      -0.39596547       0.47382096
Ge       3.45035474      13.13886460       2.16625491       0.04754006      -0.10581591      -0.87927858
Ge       9.88745792      13.58984728       2.15421292      -0.32203812      -0.13777310      -0.14472693
Ge       3.14992319       1.52963754       8.19888687      -0.09385986      -0.61577545       0.10752580
Ge      10.00001799       1.14907836       8.69954482       0.16024662      -0.29203781      -0.23852595
Ge       3.20337022      13.01675825       8.34250987      -0.14693157       1.11487259       0.56589695
Ge      10.09160771      13.51428126       8.26252632      -0.21861376      -0.76117827       0.11521703
Ge       3.31593538      10.45965659       1.91288281       0.40042969       0.27390869      -0.11207517
Ge      10.10978772      10.90523920       2.16753937      -0.14696843      -0.33569247       0.64221223
Ge       3.19060133      22.57764032       1.87306646       0.07711167       0.42729361       0.37168900
Ge      10.03927776      22.53623224       2.22948127      -0.03642526       0.35210892      -0.51149669
Ge       3.29534482      10.45076130       8.23376904      -0.15808892      -0.52963086       0.49154369
Ge      10.31884754      10.73738185       8.46739177       0.12155255      -0.08029022       0.14641715
Ge       3.06818910      22.58124053       8.39261093       0.00916114       0.75923245      -0.84888542
Ge      10.22561090      22.23823073       8.38332207      -0.20036108       0.95351112      -0.01961145
